# vtk DataFile Version 2.0
Cell2Unstructured
ASCII
DATASET UNSTRUCTURED_GRID
POINTS 12 float
0 0 0
0 1 0
0 0 1
0 1 1
1 0 0
1 1 0
1 0 1
1 1 1
2 0 0
2 1 0
2 0 1
2 1 1

CELLS 2 18
8 0 1 3 2 4 5 7 6
8 4 5 7 6 8 9 11 10

CELL_TYPES 2
12
12

POINT_DATA 12
SCALARS PPressure float 1
LOOKUP_TABLE default
10
10
10
10
20
20
20
20
30
30
30
30

VECTORS PVelocity float
0 0 1
0 0 1
0 0 1
0 0 1
0 0 2
0 0 2
0 0 2
0 0 2
0 0 3
0 0 3
0 0 3
0 0 3
