/*--------------------------------*- C++ -*----------------------------------*\
| =========                 |                                                 |
| \\      /  F ield         | OpenFOAM: The Open Source CFD Toolbox           |
|  \\    /   O peration     | Version:  3.0.1                                 |
|   \\  /    A nd           | Web:      www.OpenFOAM.org                      |
|    \\/     M anipulation  |                                                 |
\*---------------------------------------------------------------------------*/
FoamFile
{
    version     2.0;
    format      ascii;
    class       volScalarField;
    object      p;
}
// * * * * * * * * * * * * * * * * * * * * * * * * * * * * * * * * * * * * * //

dimensions      [0 2 -2 0 0 0 0];

internalField   nonuniform List<scalar>
2
(
1
2
);

boundaryField
{
    faceA
    {
        type            zeroGradient;
    }

    faceB
    {
        type            zeroGradient;
    }

    faceC
    {
        type            zeroGradient;
    }

    faceD
    {
        type            zeroGradient;
    }

    faceE
    {
        type            zeroGradient;
    }

    faceF
    {
        type            zeroGradient;
    }
}

// ************************************************************************* //
