/*--------------------------------*- C++ -*----------------------------------*\
| =========                 |                                                 |
| \\      /  F ield         | OpenFOAM: The Open Source CFD Toolbox           |
|  \\    /   O peration     | Version:  3.0.1                                 |
|   \\  /    A nd           | Web:      www.OpenFOAM.org                      |
|    \\/     M anipulation  |                                                 |
\*---------------------------------------------------------------------------*/
FoamFile
{
    version     2.0;
    format      ascii;
    class       volVectorField;
    location    "0";
    object      U;
}
// * * * * * * * * * * * * * * * * * * * * * * * * * * * * * * * * * * * * * //

dimensions      [0 1 -1 0 0 0 0];

internalField   nonuniform List<vector> 
2
(
(0 3 4)
(4 3 0)
)
;

boundaryField
{
    faceA
    {
        type            zeroGradient;
    }

    faceB
    {
        type            zeroGradient;
    }

    faceC
    {
        type            zeroGradient;
    }

    faceD
    {
        type            zeroGradient;
    }

    faceE
    {
        type            zeroGradient;
    }

    faceF
    {
        type            zeroGradient;
    }
}

// ************************************************************************* //
